/*--------------------------------*- C++ -*----------------------------------*\
| =========                 |                                                 |
| \\      /  F ield         | OpenFOAM: The Open Source CFD Toolbox           |
|  \\    /   O peration     | Version:  dev                                   |
|   \\  /    A nd           | Web:      www.OpenFOAM.org                      |
|    \\/     M anipulation  |                                                 |
\*---------------------------------------------------------------------------*/
FoamFile
{
    version     2.0;
    format      ascii;
    class       volScalarField;
    location    "0";
    object      c;
}
// * * * * * * * * * * * * * * * * * * * * * * * * * * * * * * * * * * * * * //

dimensions      [0 0 0 0 0 0 0];

internalField   nonuniform List<scalar> 
20
(
0
0
0
0
1
1
0
0
0
0
0
0
0
0
0
0
0
0
0
0
)
;

boundaryField
{
    x_0
    {
        type            cyclic;
    }
    x_1
    {
        type            cyclic;
    }
    walls
    {
        type            empty;
    }
}


// ************************************************************************* //
